s 0.036772557 _1_ RTR  --- 0 message 32 [0 0 0 0] ------- [1:255 -1:255 32 0] 
s 0.177383425 _2_ RTR  --- 1 message 32 [0 0 0 0] ------- [2:255 -1:255 32 0] 
r 0.178363685 _3_ RTR  --- 1 message 32 [0 ffffffff 2 800] ------- [2:255 -1:255 32 0] 
r 0.178363698 _8_ RTR  --- 1 message 32 [0 ffffffff 2 800] ------- [2:255 -1:255 32 0] 
r 0.178363785 _7_ RTR  --- 1 message 32 [0 ffffffff 2 800] ------- [2:255 -1:255 32 0] 
r 0.178363899 _6_ RTR  --- 1 message 32 [0 ffffffff 2 800] ------- [2:255 -1:255 32 0] 
r 0.178363975 _5_ RTR  --- 1 message 32 [0 ffffffff 2 800] ------- [2:255 -1:255 32 0] 
r 0.178364029 _9_ RTR  --- 1 message 32 [0 ffffffff 2 800] ------- [2:255 -1:255 32 0] 
r 0.178364109 _4_ RTR  --- 1 message 32 [0 ffffffff 2 800] ------- [2:255 -1:255 32 0] 
s 0.470144892 _7_ RTR  --- 2 message 32 [0 0 0 0] ------- [7:255 -1:255 32 0] 
r 0.471165009 _6_ RTR  --- 2 message 32 [0 ffffffff 7 800] ------- [7:255 -1:255 32 0] 
r 0.471165049 _8_ RTR  --- 2 message 32 [0 ffffffff 7 800] ------- [7:255 -1:255 32 0] 
r 0.471165109 _5_ RTR  --- 2 message 32 [0 ffffffff 7 800] ------- [7:255 -1:255 32 0] 
r 0.471165153 _9_ RTR  --- 2 message 32 [0 ffffffff 7 800] ------- [7:255 -1:255 32 0] 
r 0.471165252 _2_ RTR  --- 2 message 32 [0 ffffffff 7 800] ------- [7:255 -1:255 32 0] 
r 0.471165325 _4_ RTR  --- 2 message 32 [0 ffffffff 7 800] ------- [7:255 -1:255 32 0] 
r 0.471165496 _3_ RTR  --- 2 message 32 [0 ffffffff 7 800] ------- [7:255 -1:255 32 0] 
r 0.471165554 _0_ RTR  --- 2 message 32 [0 ffffffff 7 800] ------- [7:255 -1:255 32 0] 
s 0.622244972 _9_ RTR  --- 3 message 32 [0 0 0 0] ------- [9:255 -1:255 32 0] 
r 0.623505159 _6_ RTR  --- 3 message 32 [0 ffffffff 9 800] ------- [9:255 -1:255 32 0] 
r 0.623505222 _5_ RTR  --- 3 message 32 [0 ffffffff 9 800] ------- [9:255 -1:255 32 0] 
r 0.623505233 _7_ RTR  --- 3 message 32 [0 ffffffff 9 800] ------- [9:255 -1:255 32 0] 
r 0.623505236 _4_ RTR  --- 3 message 32 [0 ffffffff 9 800] ------- [9:255 -1:255 32 0] 
r 0.623505316 _8_ RTR  --- 3 message 32 [0 ffffffff 9 800] ------- [9:255 -1:255 32 0] 
r 0.623505577 _2_ RTR  --- 3 message 32 [0 ffffffff 9 800] ------- [9:255 -1:255 32 0] 
r 0.623505679 _0_ RTR  --- 3 message 32 [0 ffffffff 9 800] ------- [9:255 -1:255 32 0] 
s 0.634544216 _5_ RTR  --- 4 message 32 [0 0 0 0] ------- [5:255 -1:255 32 0] 
r 0.635904334 _6_ RTR  --- 4 message 32 [0 ffffffff 5 800] ------- [5:255 -1:255 32 0] 
r 0.635904433 _7_ RTR  --- 4 message 32 [0 ffffffff 5 800] ------- [5:255 -1:255 32 0] 
r 0.635904466 _9_ RTR  --- 4 message 32 [0 ffffffff 5 800] ------- [5:255 -1:255 32 0] 
r 0.635904589 _8_ RTR  --- 4 message 32 [0 ffffffff 5 800] ------- [5:255 -1:255 32 0] 
r 0.635904694 _0_ RTR  --- 4 message 32 [0 ffffffff 5 800] ------- [5:255 -1:255 32 0] 
r 0.635904723 _4_ RTR  --- 4 message 32 [0 ffffffff 5 800] ------- [5:255 -1:255 32 0] 
r 0.635904766 _2_ RTR  --- 4 message 32 [0 ffffffff 5 800] ------- [5:255 -1:255 32 0] 
r 0.635904984 _3_ RTR  --- 4 message 32 [0 ffffffff 5 800] ------- [5:255 -1:255 32 0] 
s 0.890857830 _3_ RTR  --- 5 message 32 [0 0 0 0] ------- [3:255 -1:255 32 0] 
r 0.892038090 _2_ RTR  --- 5 message 32 [0 ffffffff 3 800] ------- [3:255 -1:255 32 0] 
r 0.892038363 _8_ RTR  --- 5 message 32 [0 ffffffff 3 800] ------- [3:255 -1:255 32 0] 
r 0.892038434 _7_ RTR  --- 5 message 32 [0 ffffffff 3 800] ------- [3:255 -1:255 32 0] 
r 0.892038542 _6_ RTR  --- 5 message 32 [0 ffffffff 3 800] ------- [3:255 -1:255 32 0] 
r 0.892038598 _5_ RTR  --- 5 message 32 [0 ffffffff 3 800] ------- [3:255 -1:255 32 0] 
s 1.115816623 _0_ RTR  --- 6 message 32 [0 0 0 0] ------- [0:255 -1:255 32 0] 
r 1.116837100 _5_ RTR  --- 6 message 32 [0 ffffffff 0 800] ------- [0:255 -1:255 32 0] 
r 1.116837215 _6_ RTR  --- 6 message 32 [0 ffffffff 0 800] ------- [0:255 -1:255 32 0] 
r 1.116837284 _7_ RTR  --- 6 message 32 [0 ffffffff 0 800] ------- [0:255 -1:255 32 0] 
r 1.116837329 _9_ RTR  --- 6 message 32 [0 ffffffff 0 800] ------- [0:255 -1:255 32 0] 
r 1.116837436 _8_ RTR  --- 6 message 32 [0 ffffffff 0 800] ------- [0:255 -1:255 32 0] 
s 1.286604722 _8_ RTR  --- 7 message 32 [0 0 0 0] ------- [8:255 -1:255 32 0] 
r 1.287624879 _7_ RTR  --- 7 message 32 [0 ffffffff 8 800] ------- [8:255 -1:255 32 0] 
r 1.287624986 _6_ RTR  --- 7 message 32 [0 ffffffff 8 800] ------- [8:255 -1:255 32 0] 
r 1.287624995 _2_ RTR  --- 7 message 32 [0 ffffffff 8 800] ------- [8:255 -1:255 32 0] 
r 1.287625066 _9_ RTR  --- 7 message 32 [0 ffffffff 8 800] ------- [8:255 -1:255 32 0] 
r 1.287625095 _5_ RTR  --- 7 message 32 [0 ffffffff 8 800] ------- [8:255 -1:255 32 0] 
r 1.287625139 _4_ RTR  --- 7 message 32 [0 ffffffff 8 800] ------- [8:255 -1:255 32 0] 
r 1.287625256 _3_ RTR  --- 7 message 32 [0 ffffffff 8 800] ------- [8:255 -1:255 32 0] 
r 1.287625535 _0_ RTR  --- 7 message 32 [0 ffffffff 8 800] ------- [8:255 -1:255 32 0] 
s 1.598894933 _4_ RTR  --- 8 message 32 [0 0 0 0] ------- [4:255 -1:255 32 0] 
r 1.600055197 _9_ RTR  --- 8 message 32 [0 ffffffff 4 800] ------- [4:255 -1:255 32 0] 
r 1.600055350 _8_ RTR  --- 8 message 32 [0 ffffffff 4 800] ------- [4:255 -1:255 32 0] 
r 1.600055350 _6_ RTR  --- 8 message 32 [0 ffffffff 4 800] ------- [4:255 -1:255 32 0] 
r 1.600055366 _7_ RTR  --- 8 message 32 [0 ffffffff 4 800] ------- [4:255 -1:255 32 0] 
r 1.600055440 _5_ RTR  --- 8 message 32 [0 ffffffff 4 800] ------- [4:255 -1:255 32 0] 
r 1.600055617 _2_ RTR  --- 8 message 32 [0 ffffffff 4 800] ------- [4:255 -1:255 32 0] 
s 1.634183138 _6_ RTR  --- 9 message 32 [0 0 0 0] ------- [6:255 -1:255 32 0] 
r 1.635283254 _7_ RTR  --- 9 message 32 [0 ffffffff 6 800] ------- [6:255 -1:255 32 0] 
r 1.635283256 _5_ RTR  --- 9 message 32 [0 ffffffff 6 800] ------- [6:255 -1:255 32 0] 
r 1.635283324 _9_ RTR  --- 9 message 32 [0 ffffffff 6 800] ------- [6:255 -1:255 32 0] 
r 1.635283401 _8_ RTR  --- 9 message 32 [0 ffffffff 6 800] ------- [6:255 -1:255 32 0] 
r 1.635283554 _4_ RTR  --- 9 message 32 [0 ffffffff 6 800] ------- [6:255 -1:255 32 0] 
r 1.635283612 _2_ RTR  --- 9 message 32 [0 ffffffff 6 800] ------- [6:255 -1:255 32 0] 
r 1.635283730 _0_ RTR  --- 9 message 32 [0 ffffffff 6 800] ------- [6:255 -1:255 32 0] 
r 1.635283850 _3_ RTR  --- 9 message 32 [0 ffffffff 6 800] ------- [6:255 -1:255 32 0] 
M 10.00000 0 (25.00, 5.00, 0.00), (250.00, 250.00), 3.00
s 10.000000000 _0_ AGT  --- 10 tcp 40 [0 0 0 0] ------- [0:0 1:0 32 0] [0 0] 0 0
r 10.000000000 _0_ RTR  --- 10 tcp 40 [0 0 0 0] ------- [0:0 1:0 32 0] [0 0] 0 0
s 11.899402816 _1_ RTR  --- 11 message 32 [0 0 0 0] ------- [1:255 -1:255 32 0] 
s 12.178639273 _8_ RTR  --- 13 message 32 [0 0 0 0] ------- [8:255 -1:255 32 0] 
r 12.179479430 _7_ RTR  --- 13 message 32 [0 ffffffff 8 800] ------- [8:255 -1:255 32 0] 
r 12.179479537 _6_ RTR  --- 13 message 32 [0 ffffffff 8 800] ------- [8:255 -1:255 32 0] 
r 12.179479547 _2_ RTR  --- 13 message 32 [0 ffffffff 8 800] ------- [8:255 -1:255 32 0] 
r 12.179479617 _9_ RTR  --- 13 message 32 [0 ffffffff 8 800] ------- [8:255 -1:255 32 0] 
r 12.179479646 _5_ RTR  --- 13 message 32 [0 ffffffff 8 800] ------- [8:255 -1:255 32 0] 
r 12.179479690 _4_ RTR  --- 13 message 32 [0 ffffffff 8 800] ------- [8:255 -1:255 32 0] 
r 12.179479807 _3_ RTR  --- 13 message 32 [0 ffffffff 8 800] ------- [8:255 -1:255 32 0] 
r 12.179480065 _0_ RTR  --- 13 message 32 [0 ffffffff 8 800] ------- [8:255 -1:255 32 0] 
s 12.180226042 _6_ RTR  --- 15 message 32 [0 0 0 0] ------- [6:255 -1:255 32 0] 
r 12.181286158 _7_ RTR  --- 15 message 32 [0 ffffffff 6 800] ------- [6:255 -1:255 32 0] 
r 12.181286160 _5_ RTR  --- 15 message 32 [0 ffffffff 6 800] ------- [6:255 -1:255 32 0] 
r 12.181286228 _9_ RTR  --- 15 message 32 [0 ffffffff 6 800] ------- [6:255 -1:255 32 0] 
r 12.181286305 _8_ RTR  --- 15 message 32 [0 ffffffff 6 800] ------- [6:255 -1:255 32 0] 
r 12.181286458 _4_ RTR  --- 15 message 32 [0 ffffffff 6 800] ------- [6:255 -1:255 32 0] 
r 12.181286516 _2_ RTR  --- 15 message 32 [0 ffffffff 6 800] ------- [6:255 -1:255 32 0] 
r 12.181286613 _0_ RTR  --- 15 message 32 [0 ffffffff 6 800] ------- [6:255 -1:255 32 0] 
r 12.181286754 _3_ RTR  --- 15 message 32 [0 ffffffff 6 800] ------- [6:255 -1:255 32 0] 
s 12.181636955 _7_ RTR  --- 14 message 32 [0 0 0 0] ------- [7:255 -1:255 32 0] 
s 12.182620558 _3_ RTR  --- 12 message 32 [0 0 0 0] ------- [3:255 -1:255 32 0] 
r 12.182757072 _6_ RTR  --- 14 message 32 [0 ffffffff 7 800] ------- [7:255 -1:255 32 0] 
r 12.182757112 _8_ RTR  --- 14 message 32 [0 ffffffff 7 800] ------- [7:255 -1:255 32 0] 
r 12.182757172 _5_ RTR  --- 14 message 32 [0 ffffffff 7 800] ------- [7:255 -1:255 32 0] 
r 12.182757215 _9_ RTR  --- 14 message 32 [0 ffffffff 7 800] ------- [7:255 -1:255 32 0] 
r 12.182757315 _2_ RTR  --- 14 message 32 [0 ffffffff 7 800] ------- [7:255 -1:255 32 0] 
r 12.182757388 _4_ RTR  --- 14 message 32 [0 ffffffff 7 800] ------- [7:255 -1:255 32 0] 
r 12.182757559 _3_ RTR  --- 14 message 32 [0 ffffffff 7 800] ------- [7:255 -1:255 32 0] 
r 12.182757595 _0_ RTR  --- 14 message 32 [0 ffffffff 7 800] ------- [7:255 -1:255 32 0] 
r 12.183567819 _2_ RTR  --- 12 message 32 [0 ffffffff 3 800] ------- [3:255 -1:255 32 0] 
r 12.183568093 _8_ RTR  --- 12 message 32 [0 ffffffff 3 800] ------- [3:255 -1:255 32 0] 
r 12.183568163 _7_ RTR  --- 12 message 32 [0 ffffffff 3 800] ------- [3:255 -1:255 32 0] 
r 12.183568271 _6_ RTR  --- 12 message 32 [0 ffffffff 3 800] ------- [3:255 -1:255 32 0] 
r 12.183568327 _5_ RTR  --- 12 message 32 [0 ffffffff 3 800] ------- [3:255 -1:255 32 0] 
s 12.186091066 _4_ RTR  --- 18 message 32 [0 0 0 0] ------- [4:255 -1:255 32 0] 
s 12.186213846 _5_ RTR  --- 16 message 32 [0 0 0 0] ------- [5:255 -1:255 32 0] 
r 12.187111330 _9_ RTR  --- 18 message 32 [0 ffffffff 4 800] ------- [4:255 -1:255 32 0] 
r 12.187111483 _8_ RTR  --- 18 message 32 [0 ffffffff 4 800] ------- [4:255 -1:255 32 0] 
r 12.187111483 _6_ RTR  --- 18 message 32 [0 ffffffff 4 800] ------- [4:255 -1:255 32 0] 
r 12.187111499 _7_ RTR  --- 18 message 32 [0 ffffffff 4 800] ------- [4:255 -1:255 32 0] 
r 12.187111573 _5_ RTR  --- 18 message 32 [0 ffffffff 4 800] ------- [4:255 -1:255 32 0] 
r 12.187111750 _2_ RTR  --- 18 message 32 [0 ffffffff 4 800] ------- [4:255 -1:255 32 0] 
s 12.187832191 _9_ RTR  --- 17 message 32 [0 0 0 0] ------- [9:255 -1:255 32 0] 
r 12.187921691 _6_ RTR  --- 16 message 32 [0 ffffffff 5 800] ------- [5:255 -1:255 32 0] 
r 12.187921790 _7_ RTR  --- 16 message 32 [0 ffffffff 5 800] ------- [5:255 -1:255 32 0] 
r 12.187921823 _9_ RTR  --- 16 message 32 [0 ffffffff 5 800] ------- [5:255 -1:255 32 0] 
r 12.187921946 _8_ RTR  --- 16 message 32 [0 ffffffff 5 800] ------- [5:255 -1:255 32 0] 
r 12.187922030 _0_ RTR  --- 16 message 32 [0 ffffffff 5 800] ------- [5:255 -1:255 32 0] 
r 12.187922080 _4_ RTR  --- 16 message 32 [0 ffffffff 5 800] ------- [5:255 -1:255 32 0] 
r 12.187922123 _2_ RTR  --- 16 message 32 [0 ffffffff 5 800] ------- [5:255 -1:255 32 0] 
r 12.187922342 _3_ RTR  --- 16 message 32 [0 ffffffff 5 800] ------- [5:255 -1:255 32 0] 
r 12.188952010 _6_ RTR  --- 17 message 32 [0 ffffffff 9 800] ------- [9:255 -1:255 32 0] 
r 12.188952073 _5_ RTR  --- 17 message 32 [0 ffffffff 9 800] ------- [9:255 -1:255 32 0] 
r 12.188952084 _7_ RTR  --- 17 message 32 [0 ffffffff 9 800] ------- [9:255 -1:255 32 0] 
r 12.188952087 _4_ RTR  --- 17 message 32 [0 ffffffff 9 800] ------- [9:255 -1:255 32 0] 
r 12.188952167 _8_ RTR  --- 17 message 32 [0 ffffffff 9 800] ------- [9:255 -1:255 32 0] 
r 12.188952427 _2_ RTR  --- 17 message 32 [0 ffffffff 9 800] ------- [9:255 -1:255 32 0] 
r 12.188952510 _0_ RTR  --- 17 message 32 [0 ffffffff 9 800] ------- [9:255 -1:255 32 0] 
s 12.478445670 _2_ RTR  --- 19 message 32 [0 0 0 0] ------- [2:255 -1:255 32 0] 
r 12.479385930 _3_ RTR  --- 19 message 32 [0 ffffffff 2 800] ------- [2:255 -1:255 32 0] 
r 12.479385943 _8_ RTR  --- 19 message 32 [0 ffffffff 2 800] ------- [2:255 -1:255 32 0] 
r 12.479386030 _7_ RTR  --- 19 message 32 [0 ffffffff 2 800] ------- [2:255 -1:255 32 0] 
r 12.479386144 _6_ RTR  --- 19 message 32 [0 ffffffff 2 800] ------- [2:255 -1:255 32 0] 
r 12.479386220 _5_ RTR  --- 19 message 32 [0 ffffffff 2 800] ------- [2:255 -1:255 32 0] 
r 12.479386274 _9_ RTR  --- 19 message 32 [0 ffffffff 2 800] ------- [2:255 -1:255 32 0] 
r 12.479386354 _4_ RTR  --- 19 message 32 [0 ffffffff 2 800] ------- [2:255 -1:255 32 0] 
s 12.479912017 _0_ RTR  --- 20 message 32 [0 0 0 0] ------- [0:255 -1:255 32 0] 
r 12.481312471 _5_ RTR  --- 20 message 32 [0 ffffffff 0 800] ------- [0:255 -1:255 32 0] 
r 12.481312585 _6_ RTR  --- 20 message 32 [0 ffffffff 0 800] ------- [0:255 -1:255 32 0] 
r 12.481312654 _7_ RTR  --- 20 message 32 [0 ffffffff 0 800] ------- [0:255 -1:255 32 0] 
r 12.481312701 _9_ RTR  --- 20 message 32 [0 ffffffff 0 800] ------- [0:255 -1:255 32 0] 
r 12.481312805 _8_ RTR  --- 20 message 32 [0 ffffffff 0 800] ------- [0:255 -1:255 32 0] 
s 12.776839788 _0_ RTR  --- 21 message 68 [0 0 0 0] ------- [0:255 -1:255 32 0] 
r 12.778488239 _5_ RTR  --- 21 message 68 [0 ffffffff 0 800] ------- [0:255 -1:255 32 0] 
r 12.778488353 _6_ RTR  --- 21 message 68 [0 ffffffff 0 800] ------- [0:255 -1:255 32 0] 
r 12.778488422 _7_ RTR  --- 21 message 68 [0 ffffffff 0 800] ------- [0:255 -1:255 32 0] 
r 12.778488470 _9_ RTR  --- 21 message 68 [0 ffffffff 0 800] ------- [0:255 -1:255 32 0] 
r 12.778488573 _8_ RTR  --- 21 message 68 [0 ffffffff 0 800] ------- [0:255 -1:255 32 0] 
s 12.890342060 _4_ RTR  --- 22 message 80 [0 0 0 0] ------- [4:255 -1:255 32 0] 
r 12.891886323 _9_ RTR  --- 22 message 80 [0 ffffffff 4 800] ------- [4:255 -1:255 32 0] 
r 12.891886476 _8_ RTR  --- 22 message 80 [0 ffffffff 4 800] ------- [4:255 -1:255 32 0] 
r 12.891886476 _6_ RTR  --- 22 message 80 [0 ffffffff 4 800] ------- [4:255 -1:255 32 0] 
r 12.891886492 _7_ RTR  --- 22 message 80 [0 ffffffff 4 800] ------- [4:255 -1:255 32 0] 
r 12.891886567 _5_ RTR  --- 22 message 80 [0 ffffffff 4 800] ------- [4:255 -1:255 32 0] 
r 12.891886744 _2_ RTR  --- 22 message 80 [0 ffffffff 4 800] ------- [4:255 -1:255 32 0] 
s 13.000000000 _0_ AGT  --- 23 tcp 40 [0 0 0 0] ------- [0:0 1:0 32 0] [0 0] 0 0
r 13.000000000 _0_ RTR  --- 23 tcp 40 [0 0 0 0] ------- [0:0 1:0 32 0] [0 0] 0 0
s 13.178365431 _3_ RTR  --- 24 message 56 [0 0 0 0] ------- [3:255 -1:255 32 0] 
s 13.178397478 _5_ RTR  --- 28 message 80 [0 0 0 0] ------- [5:255 -1:255 32 0] 
r 13.179517691 _2_ RTR  --- 24 message 56 [0 ffffffff 3 800] ------- [3:255 -1:255 32 0] 
r 13.179517964 _8_ RTR  --- 24 message 56 [0 ffffffff 3 800] ------- [3:255 -1:255 32 0] 
r 13.179518035 _7_ RTR  --- 24 message 56 [0 ffffffff 3 800] ------- [3:255 -1:255 32 0] 
r 13.179518143 _6_ RTR  --- 24 message 56 [0 ffffffff 3 800] ------- [3:255 -1:255 32 0] 
r 13.179518199 _5_ RTR  --- 24 message 56 [0 ffffffff 3 800] ------- [3:255 -1:255 32 0] 
r 13.180932317 _6_ RTR  --- 28 message 80 [0 ffffffff 5 800] ------- [5:255 -1:255 32 0] 
r 13.180932416 _7_ RTR  --- 28 message 80 [0 ffffffff 5 800] ------- [5:255 -1:255 32 0] 
r 13.180932449 _9_ RTR  --- 28 message 80 [0 ffffffff 5 800] ------- [5:255 -1:255 32 0] 
r 13.180932572 _8_ RTR  --- 28 message 80 [0 ffffffff 5 800] ------- [5:255 -1:255 32 0] 
r 13.180932647 _0_ RTR  --- 28 message 80 [0 ffffffff 5 800] ------- [5:255 -1:255 32 0] 
r 13.180932706 _4_ RTR  --- 28 message 80 [0 ffffffff 5 800] ------- [5:255 -1:255 32 0] 
r 13.180932749 _2_ RTR  --- 28 message 80 [0 ffffffff 5 800] ------- [5:255 -1:255 32 0] 
r 13.180932967 _3_ RTR  --- 28 message 80 [0 ffffffff 5 800] ------- [5:255 -1:255 32 0] 
s 13.181581377 _9_ RTR  --- 29 message 56 [0 0 0 0] ------- [9:255 -1:255 32 0] 
s 13.181685843 _8_ RTR  --- 25 message 92 [0 0 0 0] ------- [8:255 -1:255 32 0] 
s 13.182016372 _6_ RTR  --- 27 message 92 [0 0 0 0] ------- [6:255 -1:255 32 0] 
r 13.183306000 _7_ RTR  --- 25 message 92 [0 ffffffff 8 800] ------- [8:255 -1:255 32 0] 
r 13.183306106 _6_ RTR  --- 25 message 92 [0 ffffffff 8 800] ------- [8:255 -1:255 32 0] 
r 13.183306116 _2_ RTR  --- 25 message 92 [0 ffffffff 8 800] ------- [8:255 -1:255 32 0] 
r 13.183306186 _9_ RTR  --- 25 message 92 [0 ffffffff 8 800] ------- [8:255 -1:255 32 0] 
r 13.183306215 _5_ RTR  --- 25 message 92 [0 ffffffff 8 800] ------- [8:255 -1:255 32 0] 
r 13.183306259 _4_ RTR  --- 25 message 92 [0 ffffffff 8 800] ------- [8:255 -1:255 32 0] 
r 13.183306376 _3_ RTR  --- 25 message 92 [0 ffffffff 8 800] ------- [8:255 -1:255 32 0] 
r 13.183306624 _0_ RTR  --- 25 message 92 [0 ffffffff 8 800] ------- [8:255 -1:255 32 0] 
r 13.184348373 _6_ RTR  --- 29 message 56 [0 ffffffff 9 800] ------- [9:255 -1:255 32 0] 
r 13.184348436 _5_ RTR  --- 29 message 56 [0 ffffffff 9 800] ------- [9:255 -1:255 32 0] 
r 13.184348447 _7_ RTR  --- 29 message 56 [0 ffffffff 9 800] ------- [9:255 -1:255 32 0] 
r 13.184348450 _4_ RTR  --- 29 message 56 [0 ffffffff 9 800] ------- [9:255 -1:255 32 0] 
r 13.184348530 _8_ RTR  --- 29 message 56 [0 ffffffff 9 800] ------- [9:255 -1:255 32 0] 
r 13.184348790 _2_ RTR  --- 29 message 56 [0 ffffffff 9 800] ------- [9:255 -1:255 32 0] 
r 13.184348865 _0_ RTR  --- 29 message 56 [0 ffffffff 9 800] ------- [9:255 -1:255 32 0] 
r 13.185678489 _7_ RTR  --- 27 message 92 [0 ffffffff 6 800] ------- [6:255 -1:255 32 0] 
r 13.185678491 _5_ RTR  --- 27 message 92 [0 ffffffff 6 800] ------- [6:255 -1:255 32 0] 
r 13.185678559 _9_ RTR  --- 27 message 92 [0 ffffffff 6 800] ------- [6:255 -1:255 32 0] 
r 13.185678636 _8_ RTR  --- 27 message 92 [0 ffffffff 6 800] ------- [6:255 -1:255 32 0] 
r 13.185678789 _4_ RTR  --- 27 message 92 [0 ffffffff 6 800] ------- [6:255 -1:255 32 0] 
r 13.185678847 _2_ RTR  --- 27 message 92 [0 ffffffff 6 800] ------- [6:255 -1:255 32 0] 
r 13.185678934 _0_ RTR  --- 27 message 92 [0 ffffffff 6 800] ------- [6:255 -1:255 32 0] 
r 13.185679085 _3_ RTR  --- 27 message 92 [0 ffffffff 6 800] ------- [6:255 -1:255 32 0] 
s 13.187483177 _7_ RTR  --- 26 message 80 [0 0 0 0] ------- [7:255 -1:255 32 0] 
r 13.188687294 _6_ RTR  --- 26 message 80 [0 ffffffff 7 800] ------- [7:255 -1:255 32 0] 
r 13.188687334 _8_ RTR  --- 26 message 80 [0 ffffffff 7 800] ------- [7:255 -1:255 32 0] 
r 13.188687394 _5_ RTR  --- 26 message 80 [0 ffffffff 7 800] ------- [7:255 -1:255 32 0] 
r 13.188687437 _9_ RTR  --- 26 message 80 [0 ffffffff 7 800] ------- [7:255 -1:255 32 0] 
r 13.188687537 _2_ RTR  --- 26 message 80 [0 ffffffff 7 800] ------- [7:255 -1:255 32 0] 
r 13.188687610 _4_ RTR  --- 26 message 80 [0 ffffffff 7 800] ------- [7:255 -1:255 32 0] 
r 13.188687781 _3_ RTR  --- 26 message 80 [0 ffffffff 7 800] ------- [7:255 -1:255 32 0] 
r 13.188687807 _0_ RTR  --- 26 message 80 [0 ffffffff 7 800] ------- [7:255 -1:255 32 0] 
s 13.475564396 _2_ RTR  --- 30 message 44 [0 0 0 0] ------- [2:255 -1:255 32 0] 
r 13.477080656 _3_ RTR  --- 30 message 44 [0 ffffffff 2 800] ------- [2:255 -1:255 32 0] 
r 13.477080669 _8_ RTR  --- 30 message 44 [0 ffffffff 2 800] ------- [2:255 -1:255 32 0] 
r 13.477080756 _7_ RTR  --- 30 message 44 [0 ffffffff 2 800] ------- [2:255 -1:255 32 0] 
r 13.477080870 _6_ RTR  --- 30 message 44 [0 ffffffff 2 800] ------- [2:255 -1:255 32 0] 
r 13.477080946 _5_ RTR  --- 30 message 44 [0 ffffffff 2 800] ------- [2:255 -1:255 32 0] 
r 13.477081000 _9_ RTR  --- 30 message 44 [0 ffffffff 2 800] ------- [2:255 -1:255 32 0] 
r 13.477081080 _4_ RTR  --- 30 message 44 [0 ffffffff 2 800] ------- [2:255 -1:255 32 0] 
s 13.814282867 _9_ RTR  --- 32 message 44 [0 0 0 0] ------- [9:255 -1:255 32 0] 
r 13.815259054 _6_ RTR  --- 32 message 44 [0 ffffffff 9 800] ------- [9:255 -1:255 32 0] 
r 13.815259117 _5_ RTR  --- 32 message 44 [0 ffffffff 9 800] ------- [9:255 -1:255 32 0] 
r 13.815259128 _7_ RTR  --- 32 message 44 [0 ffffffff 9 800] ------- [9:255 -1:255 32 0] 
r 13.815259131 _4_ RTR  --- 32 message 44 [0 ffffffff 9 800] ------- [9:255 -1:255 32 0] 
r 13.815259211 _8_ RTR  --- 32 message 44 [0 ffffffff 9 800] ------- [9:255 -1:255 32 0] 
r 13.815259472 _2_ RTR  --- 32 message 44 [0 ffffffff 9 800] ------- [9:255 -1:255 32 0] 
r 13.815259540 _0_ RTR  --- 32 message 44 [0 ffffffff 9 800] ------- [9:255 -1:255 32 0] 
s 14.182593009 _3_ RTR  --- 34 message 32 [0 0 0 0] ------- [3:255 -1:255 32 0] 
r 14.183433270 _2_ RTR  --- 34 message 32 [0 ffffffff 3 800] ------- [3:255 -1:255 32 0] 
r 14.183433543 _8_ RTR  --- 34 message 32 [0 ffffffff 3 800] ------- [3:255 -1:255 32 0] 
r 14.183433613 _7_ RTR  --- 34 message 32 [0 ffffffff 3 800] ------- [3:255 -1:255 32 0] 
r 14.183433721 _6_ RTR  --- 34 message 32 [0 ffffffff 3 800] ------- [3:255 -1:255 32 0] 
r 14.183433778 _5_ RTR  --- 34 message 32 [0 ffffffff 3 800] ------- [3:255 -1:255 32 0] 
s 14.476012993 _2_ RTR  --- 39 message 32 [0 0 0 0] ------- [2:255 -1:255 32 0] 
r 14.477213253 _3_ RTR  --- 39 message 32 [0 ffffffff 2 800] ------- [2:255 -1:255 32 0] 
r 14.477213266 _8_ RTR  --- 39 message 32 [0 ffffffff 2 800] ------- [2:255 -1:255 32 0] 
r 14.477213353 _7_ RTR  --- 39 message 32 [0 ffffffff 2 800] ------- [2:255 -1:255 32 0] 
r 14.477213467 _6_ RTR  --- 39 message 32 [0 ffffffff 2 800] ------- [2:255 -1:255 32 0] 
r 14.477213543 _5_ RTR  --- 39 message 32 [0 ffffffff 2 800] ------- [2:255 -1:255 32 0] 
r 14.477213597 _9_ RTR  --- 39 message 32 [0 ffffffff 2 800] ------- [2:255 -1:255 32 0] 
r 14.477213677 _4_ RTR  --- 39 message 32 [0 ffffffff 2 800] ------- [2:255 -1:255 32 0] 
s 14.658732036 _2_ RTR  --- 40 message 44 [0 0 0 0] ------- [2:255 -1:255 32 0] 
r 14.660188296 _3_ RTR  --- 40 message 44 [0 ffffffff 2 800] ------- [2:255 -1:255 32 0] 
r 14.660188309 _8_ RTR  --- 40 message 44 [0 ffffffff 2 800] ------- [2:255 -1:255 32 0] 
r 14.660188396 _7_ RTR  --- 40 message 44 [0 ffffffff 2 800] ------- [2:255 -1:255 32 0] 
r 14.660188510 _6_ RTR  --- 40 message 44 [0 ffffffff 2 800] ------- [2:255 -1:255 32 0] 
r 14.660188586 _5_ RTR  --- 40 message 44 [0 ffffffff 2 800] ------- [2:255 -1:255 32 0] 
r 14.660188640 _9_ RTR  --- 40 message 44 [0 ffffffff 2 800] ------- [2:255 -1:255 32 0] 
r 14.660188720 _4_ RTR  --- 40 message 44 [0 ffffffff 2 800] ------- [2:255 -1:255 32 0] 
s 14.674172149 _3_ RTR  --- 41 message 32 [0 0 0 0] ------- [3:255 -1:255 32 0] 
r 14.674992410 _2_ RTR  --- 41 message 32 [0 ffffffff 3 800] ------- [3:255 -1:255 32 0] 
r 14.674992683 _8_ RTR  --- 41 message 32 [0 ffffffff 3 800] ------- [3:255 -1:255 32 0] 
r 14.674992753 _7_ RTR  --- 41 message 32 [0 ffffffff 3 800] ------- [3:255 -1:255 32 0] 
r 14.674992861 _6_ RTR  --- 41 message 32 [0 ffffffff 3 800] ------- [3:255 -1:255 32 0] 
r 14.674992917 _5_ RTR  --- 41 message 32 [0 ffffffff 3 800] ------- [3:255 -1:255 32 0] 
M 15.00000 1 (490.00, 285.00, 0.00), (45.00, 85.00), 5.00
s 19.000000000 _0_ AGT  --- 43 tcp 40 [0 0 0 0] ------- [0:0 1:0 32 0] [0 0] 0 0
r 19.000000000 _0_ RTR  --- 43 tcp 40 [0 0 0 0] ------- [0:0 1:0 32 0] [0 0] 0 0
s 24.181748372 _0_ RTR  --- 44 message 92 [0 0 0 0] ------- [0:255 -1:255 32 0] 
r 24.183608717 _5_ RTR  --- 44 message 92 [0 ffffffff 0 800] ------- [0:255 -1:255 32 0] 
r 24.183608828 _6_ RTR  --- 44 message 92 [0 ffffffff 0 800] ------- [0:255 -1:255 32 0] 
r 24.183608893 _7_ RTR  --- 44 message 92 [0 ffffffff 0 800] ------- [0:255 -1:255 32 0] 
r 24.183608957 _9_ RTR  --- 44 message 92 [0 ffffffff 0 800] ------- [0:255 -1:255 32 0] 
r 24.183609043 _8_ RTR  --- 44 message 92 [0 ffffffff 0 800] ------- [0:255 -1:255 32 0] 
r 24.183609122 _2_ RTR  --- 44 message 92 [0 ffffffff 0 800] ------- [0:255 -1:255 32 0] 
s 24.554734845 _6_ RTR  --- 45 message 92 [0 0 0 0] ------- [6:255 -1:255 32 0] 
r 24.556554962 _7_ RTR  --- 45 message 92 [0 ffffffff 6 800] ------- [6:255 -1:255 32 0] 
r 24.556554963 _5_ RTR  --- 45 message 92 [0 ffffffff 6 800] ------- [6:255 -1:255 32 0] 
r 24.556555032 _9_ RTR  --- 45 message 92 [0 ffffffff 6 800] ------- [6:255 -1:255 32 0] 
r 24.556555109 _8_ RTR  --- 45 message 92 [0 ffffffff 6 800] ------- [6:255 -1:255 32 0] 
r 24.556555262 _4_ RTR  --- 45 message 92 [0 ffffffff 6 800] ------- [6:255 -1:255 32 0] 
r 24.556555298 _0_ RTR  --- 45 message 92 [0 ffffffff 6 800] ------- [6:255 -1:255 32 0] 
r 24.556555319 _2_ RTR  --- 45 message 92 [0 ffffffff 6 800] ------- [6:255 -1:255 32 0] 
r 24.556555557 _3_ RTR  --- 45 message 92 [0 ffffffff 6 800] ------- [6:255 -1:255 32 0] 
s 24.743515557 _8_ RTR  --- 46 message 80 [0 0 0 0] ------- [8:255 -1:255 32 0] 
r 24.744819714 _7_ RTR  --- 46 message 80 [0 ffffffff 8 800] ------- [8:255 -1:255 32 0] 
r 24.744819820 _6_ RTR  --- 46 message 80 [0 ffffffff 8 800] ------- [8:255 -1:255 32 0] 
r 24.744819830 _2_ RTR  --- 46 message 80 [0 ffffffff 8 800] ------- [8:255 -1:255 32 0] 
r 24.744819900 _9_ RTR  --- 46 message 80 [0 ffffffff 8 800] ------- [8:255 -1:255 32 0] 
r 24.744819929 _5_ RTR  --- 46 message 80 [0 ffffffff 8 800] ------- [8:255 -1:255 32 0] 
r 24.744819973 _4_ RTR  --- 46 message 80 [0 ffffffff 8 800] ------- [8:255 -1:255 32 0] 
r 24.744820090 _3_ RTR  --- 46 message 80 [0 ffffffff 8 800] ------- [8:255 -1:255 32 0] 
r 24.744820223 _0_ RTR  --- 46 message 80 [0 ffffffff 8 800] ------- [8:255 -1:255 32 0] 
s 25.186335285 _3_ RTR  --- 50 message 56 [0 0 0 0] ------- [3:255 -1:255 32 0] 
r 25.187707545 _2_ RTR  --- 50 message 56 [0 ffffffff 3 800] ------- [3:255 -1:255 32 0] 
r 25.187707818 _8_ RTR  --- 50 message 56 [0 ffffffff 3 800] ------- [3:255 -1:255 32 0] 
r 25.187707889 _7_ RTR  --- 50 message 56 [0 ffffffff 3 800] ------- [3:255 -1:255 32 0] 
r 25.187707997 _6_ RTR  --- 50 message 56 [0 ffffffff 3 800] ------- [3:255 -1:255 32 0] 
r 25.187708053 _5_ RTR  --- 50 message 56 [0 ffffffff 3 800] ------- [3:255 -1:255 32 0] 
s 25.189989718 _0_ RTR  --- 48 message 44 [0 0 0 0] ------- [0:255 -1:255 32 0] 
s 25.190382947 _4_ RTR  --- 49 message 92 [0 0 0 0] ------- [4:255 -1:255 32 0] 
s 25.190509644 _9_ RTR  --- 47 message 92 [0 0 0 0] ------- [9:255 -1:255 32 0] 
r 25.191406054 _5_ RTR  --- 48 message 44 [0 ffffffff 0 800] ------- [0:255 -1:255 32 0] 
r 25.191406165 _6_ RTR  --- 48 message 44 [0 ffffffff 0 800] ------- [0:255 -1:255 32 0] 
r 25.191406229 _7_ RTR  --- 48 message 44 [0 ffffffff 0 800] ------- [0:255 -1:255 32 0] 
r 25.191406295 _9_ RTR  --- 48 message 44 [0 ffffffff 0 800] ------- [0:255 -1:255 32 0] 
r 25.191406379 _8_ RTR  --- 48 message 44 [0 ffffffff 0 800] ------- [0:255 -1:255 32 0] 
r 25.191406459 _2_ RTR  --- 48 message 44 [0 ffffffff 0 800] ------- [0:255 -1:255 32 0] 
r 25.192796481 _6_ RTR  --- 47 message 92 [0 ffffffff 9 800] ------- [9:255 -1:255 32 0] 
r 25.192796545 _5_ RTR  --- 47 message 92 [0 ffffffff 9 800] ------- [9:255 -1:255 32 0] 
r 25.192796555 _7_ RTR  --- 47 message 92 [0 ffffffff 9 800] ------- [9:255 -1:255 32 0] 
r 25.192796558 _4_ RTR  --- 47 message 92 [0 ffffffff 9 800] ------- [9:255 -1:255 32 0] 
r 25.192796638 _8_ RTR  --- 47 message 92 [0 ffffffff 9 800] ------- [9:255 -1:255 32 0] 
r 25.192796872 _0_ RTR  --- 47 message 92 [0 ffffffff 9 800] ------- [9:255 -1:255 32 0] 
r 25.192796899 _2_ RTR  --- 47 message 92 [0 ffffffff 9 800] ------- [9:255 -1:255 32 0] 
r 25.194546822 _9_ RTR  --- 49 message 92 [0 ffffffff 4 800] ------- [4:255 -1:255 32 0] 
r 25.194546975 _8_ RTR  --- 49 message 92 [0 ffffffff 4 800] ------- [4:255 -1:255 32 0] 
r 25.194546975 _6_ RTR  --- 49 message 92 [0 ffffffff 4 800] ------- [4:255 -1:255 32 0] 
r 25.194546991 _7_ RTR  --- 49 message 92 [0 ffffffff 4 800] ------- [4:255 -1:255 32 0] 
r 25.194547065 _5_ RTR  --- 49 message 92 [0 ffffffff 4 800] ------- [4:255 -1:255 32 0] 
r 25.194547242 _2_ RTR  --- 49 message 92 [0 ffffffff 4 800] ------- [4:255 -1:255 32 0] 
r 25.194547285 _1_ RTR  --- 49 message 92 [0 ffffffff 4 800] ------- [4:255 -1:255 32 0] 
s 25.579569556 _5_ RTR  --- 51 message 68 [0 0 0 0] ------- [5:255 -1:255 32 0] 
r 25.580677674 _6_ RTR  --- 51 message 68 [0 ffffffff 5 800] ------- [5:255 -1:255 32 0] 
r 25.580677772 _7_ RTR  --- 51 message 68 [0 ffffffff 5 800] ------- [5:255 -1:255 32 0] 
r 25.580677806 _9_ RTR  --- 51 message 68 [0 ffffffff 5 800] ------- [5:255 -1:255 32 0] 
r 25.580677889 _0_ RTR  --- 51 message 68 [0 ffffffff 5 800] ------- [5:255 -1:255 32 0] 
r 25.580677928 _8_ RTR  --- 51 message 68 [0 ffffffff 5 800] ------- [5:255 -1:255 32 0] 
r 25.580678063 _4_ RTR  --- 51 message 68 [0 ffffffff 5 800] ------- [5:255 -1:255 32 0] 
r 25.580678106 _2_ RTR  --- 51 message 68 [0 ffffffff 5 800] ------- [5:255 -1:255 32 0] 
r 25.580678324 _3_ RTR  --- 51 message 68 [0 ffffffff 5 800] ------- [5:255 -1:255 32 0] 
s 26.433031931 _1_ RTR  --- 52 message 32 [0 0 0 0] ------- [1:255 -1:255 32 0] 
r 26.434192639 _4_ RTR  --- 52 message 32 [0 ffffffff 1 800] ------- [1:255 -1:255 32 0] 
s 26.501205065 _2_ RTR  --- 53 message 56 [0 0 0 0] ------- [2:255 -1:255 32 0] 
r 26.502737325 _3_ RTR  --- 53 message 56 [0 ffffffff 2 800] ------- [2:255 -1:255 32 0] 
r 26.502737338 _8_ RTR  --- 53 message 56 [0 ffffffff 2 800] ------- [2:255 -1:255 32 0] 
r 26.502737424 _7_ RTR  --- 53 message 56 [0 ffffffff 2 800] ------- [2:255 -1:255 32 0] 
r 26.502737539 _6_ RTR  --- 53 message 56 [0 ffffffff 2 800] ------- [2:255 -1:255 32 0] 
r 26.502737615 _5_ RTR  --- 53 message 56 [0 ffffffff 2 800] ------- [2:255 -1:255 32 0] 
r 26.502737669 _9_ RTR  --- 53 message 56 [0 ffffffff 2 800] ------- [2:255 -1:255 32 0] 
r 26.502737749 _4_ RTR  --- 53 message 56 [0 ffffffff 2 800] ------- [2:255 -1:255 32 0] 
r 26.502737793 _0_ RTR  --- 53 message 56 [0 ffffffff 2 800] ------- [2:255 -1:255 32 0] 
s 27.039129598 _7_ RTR  --- 54 message 44 [0 0 0 0] ------- [7:255 -1:255 32 0] 
r 27.040045714 _6_ RTR  --- 54 message 44 [0 ffffffff 7 800] ------- [7:255 -1:255 32 0] 
r 27.040045755 _8_ RTR  --- 54 message 44 [0 ffffffff 7 800] ------- [7:255 -1:255 32 0] 
r 27.040045814 _5_ RTR  --- 54 message 44 [0 ffffffff 7 800] ------- [7:255 -1:255 32 0] 
r 27.040045858 _9_ RTR  --- 54 message 44 [0 ffffffff 7 800] ------- [7:255 -1:255 32 0] 
r 27.040045958 _2_ RTR  --- 54 message 44 [0 ffffffff 7 800] ------- [7:255 -1:255 32 0] 
r 27.040046030 _4_ RTR  --- 54 message 44 [0 ffffffff 7 800] ------- [7:255 -1:255 32 0] 